# ODT 1.0
# Table Start
# Title: mmArchive Data Table, Sun Aug 25 18:41:59 CEST 2019
# Columns: {Oxs_CGEvolve:evolver:Max mxHxm} {Oxs_CGEvolve:evolver:Total energy} {Oxs_CGEvolve:evolver:Delta E} {Oxs_CGEvolve:evolver:Bracket count} {Oxs_CGEvolve:evolver:Line min count} {Oxs_CGEvolve:evolver:Conjugate cycle count} {Oxs_CGEvolve:evolver:Cycle count} {Oxs_CGEvolve:evolver:Cycle sub count} {Oxs_CGEvolve:evolver:Energy calc count} Oxs_UniformExchange::Energy {Oxs_UniformExchange::Max Spin Ang} {Oxs_UniformExchange::Stage Max Spin Ang} {Oxs_UniformExchange::Run Max Spin Ang} Oxs_DMI_Cnv::Energy  Oxs_UniaxialAnisotropy::Energy Oxs_Demag::Energy    Oxs_FixedZeeman::Energy Oxs_MinDriver::Iteration {Oxs_MinDriver::Stage iteration} Oxs_MinDriver::Stage Oxs_MinDriver::mx    Oxs_MinDriver::my    Oxs_MinDriver::mz   
# Units:                 A/m                                 J                                J                                 {}                                   {}                                        {}                                      {}                                   {}                                      {}                                 J                              deg                                    deg                                      deg                            J                         J                        J                       J                       {}                           {}                         {}                 {}                   {}                   {}           
                  0.0074666166791999998               1.92237072389e-17                 3.0814879110200002e-33               147                                  100                                       20                                      128                                  97                                      248                               8.1678386085999997e-18             50.962571976200003                     173.77764188899999                       173.77764188899999            -2.0196061865300001e-17       9.2032266388500001e-18       3.6133890268499998e-17  -1.4085186411799999e-17      237                          237                        0                   -3.18166155741e-18   -9.1893402698099995e-10  0.64491571973700001
# Table End
