# OOMMF OVF 2.0
# 
# Segment count: 1
# 
# Begin: Segment
# Begin: Header
# 
# Title: Field generated omf file
# Desc: File generated by Field class
# meshunit: m
# meshtype: rectangular
# xbase: 5e-09
# ybase: 5e-09
# zbase: 5e-09
# xnodes: 10
# ynodes: 10
# znodes: 1
# xstepsize: 1e-08
# ystepsize: 1e-08
# zstepsize: 1e-08
# xmin: 0.0
# ymin: 0.0
# zmin: 0.0
# xmax: 1e-07
# ymax: 1e-07
# zmax: 1e-08
# valuedim: 3
# valuelabels: field_x field_y field_z
# valueunits: A/m A/m A/m
# 
# End: Header
# 
# Begin: Data Text
 0.0 800000.0 0.0
 0.0 800000.0 0.0
 0.0 800000.0 0.0
 0.0 800000.0 0.0
 0.0 800000.0 0.0
 0.0 800000.0 0.0
 0.0 800000.0 0.0
 0.0 800000.0 0.0
 0.0 800000.0 0.0
 0.0 800000.0 0.0
 0.0 800000.0 0.0
 0.0 800000.0 0.0
 0.0 800000.0 0.0
 0.0 800000.0 0.0
 0.0 800000.0 0.0
 0.0 800000.0 0.0
 0.0 800000.0 0.0
 0.0 800000.0 0.0
 0.0 800000.0 0.0
 0.0 800000.0 0.0
 0.0 800000.0 0.0
 0.0 800000.0 0.0
 0.0 800000.0 0.0
 0.0 800000.0 0.0
 0.0 800000.0 0.0
 0.0 800000.0 0.0
 0.0 800000.0 0.0
 0.0 800000.0 0.0
 0.0 800000.0 0.0
 0.0 800000.0 0.0
 0.0 800000.0 0.0
 0.0 800000.0 0.0
 0.0 800000.0 0.0
 0.0 800000.0 0.0
 0.0 800000.0 0.0
 0.0 800000.0 0.0
 0.0 800000.0 0.0
 0.0 800000.0 0.0
 0.0 800000.0 0.0
 0.0 800000.0 0.0
 0.0 800000.0 0.0
 0.0 800000.0 0.0
 0.0 800000.0 0.0
 0.0 800000.0 0.0
 0.0 800000.0 0.0
 0.0 800000.0 0.0
 0.0 800000.0 0.0
 0.0 800000.0 0.0
 0.0 800000.0 0.0
 0.0 800000.0 0.0
 0.0 800000.0 0.0
 0.0 800000.0 0.0
 0.0 800000.0 0.0
 0.0 800000.0 0.0
 0.0 800000.0 0.0
 0.0 800000.0 0.0
 0.0 800000.0 0.0
 0.0 800000.0 0.0
 0.0 800000.0 0.0
 0.0 800000.0 0.0
 0.0 800000.0 0.0
 0.0 800000.0 0.0
 0.0 800000.0 0.0
 0.0 800000.0 0.0
 0.0 800000.0 0.0
 0.0 800000.0 0.0
 0.0 800000.0 0.0
 0.0 800000.0 0.0
 0.0 800000.0 0.0
 0.0 800000.0 0.0
 0.0 800000.0 0.0
 0.0 800000.0 0.0
 0.0 800000.0 0.0
 0.0 800000.0 0.0
 0.0 800000.0 0.0
 0.0 800000.0 0.0
 0.0 800000.0 0.0
 0.0 800000.0 0.0
 0.0 800000.0 0.0
 0.0 800000.0 0.0
 0.0 800000.0 0.0
 0.0 800000.0 0.0
 0.0 800000.0 0.0
 0.0 800000.0 0.0
 0.0 800000.0 0.0
 0.0 800000.0 0.0
 0.0 800000.0 0.0
 0.0 800000.0 0.0
 0.0 800000.0 0.0
 0.0 800000.0 0.0
 0.0 800000.0 0.0
 0.0 800000.0 0.0
 0.0 800000.0 0.0
 0.0 800000.0 0.0
 0.0 800000.0 0.0
 0.0 800000.0 0.0
 0.0 800000.0 0.0
 0.0 800000.0 0.0
 0.0 800000.0 0.0
 0.0 800000.0 0.0
# End: Data Text
# End: Segment
