# OOMMF OVF 2.0
#
# Segment count: 1
#
# Begin: Segment
# Begin: Header
#
# Title: Oxs_MinDriver::Magnetization
# Desc: Oxs vector field output
# Desc:  MIF source file: /Users/marijanbeg/git/ubermag/oommfc/oommfc/tests/test_files/skyrmion/drive-0/skyrmion.mif
# Desc:  Iteration: 237, State id: 522
# Desc:  Stage: 0, Stage iteration: 237
# Desc:  Stage simulation time: -1 s
# Desc:  Total simulation time: -2 s
# meshunit: m
# meshtype: rectangular
# xbase: -4.7499999999999995e-08
# ybase: -4.7499999999999995e-08
# zbase: 2.5000000000000001e-09
# xnodes: 20
# ynodes: 20
# znodes: 2
# xstepsize: 5.0000000000000001e-09
# ystepsize: 5.0000000000000001e-09
# zstepsize: 5.0000000000000001e-09
# xmin: -4.9999999999999998e-08
# ymin: -4.9999999999999998e-08
# zmin: 0
# xmax: 4.9999999999999998e-08
# ymax: 4.9999999999999998e-08
# zmax: 1e-08
# valuedim: 3
# valuelabels: Magnetization_x Magnetization_y Magnetization_z
# valueunits: A/m A/m A/m
#
# End: Header
#
# Begin: Data Text
 -0.00000000000000 -0.00000000000000 -0.00000000000000
 -0.00000000000000 -0.00000000000000 0.00000000000000
 0.00000000000000 0.00000000000000 -0.00000000000000
 -0.00000000000000 0.00000000000000 -0.00000000000000
 -0.00000000000000 -0.00000000000000 0.00000000000000
 0.00000000000000 -0.00000000000000 -0.00000000000000
 0.00000000000000 0.00000000000000 0.00000000000000
 -281691.028702271 -368858.740555913 997293.033097175
 -106633.989540763 -328930.218689095 1044238.52807094
 -27988.7923527108 -315899.125231788 1053292.15803614
 27988.7923527108 -315899.125231788 1053292.15803614
 106633.989540763 -328930.218689095 1044238.52807094
 281691.028702271 -368858.740555913 997293.033097175
 0.00000000000000 -0.00000000000000 -0.00000000000000
 -0.00000000000000 -0.00000000000000 -0.00000000000000
 -0.00000000000000 0.00000000000000 0.00000000000000
 -0.00000000000000 0.00000000000000 0.00000000000000
 0.00000000000000 0.00000000000000 -0.00000000000000
 -0.00000000000000 -0.00000000000000 0.00000000000000
 -0.00000000000000 0.00000000000000 0.00000000000000
 -0.00000000000000 0.00000000000000 -0.00000000000000
 0.00000000000000 -0.00000000000000 0.00000000000000
 0.00000000000000 0.00000000000000 0.00000000000000
 0.00000000000000 -0.00000000000000 0.00000000000000
 -0.00000000000000 0.00000000000000 0.00000000000000
 -288485.287713464 -351184.834850047 1001721.24393178
 -116543.351585460 -278647.395483362 1057720.79311677
 -83287.1568223372 -149767.610582791 1086569.33157934
 -40391.7884599066 -103603.125518543 1094365.06514408
 -11663.5113696730 -84139.4395906302 1096715.33098061
 11663.5113696732 -84139.4395906302 1096715.33098061
 40391.7884599067 -103603.125518543 1094365.06514408
 83287.1568223371 -149767.610582791 1086569.33157934
 116543.351585460 -278647.395483362 1057720.79311677
 288485.287713464 -351184.834850047 1001721.24393178
 0.00000000000000 0.00000000000000 -0.00000000000000
 0.00000000000000 -0.00000000000000 0.00000000000000
 0.00000000000000 0.00000000000000 -0.00000000000000
 -0.00000000000000 -0.00000000000000 -0.00000000000000
 0.00000000000000 0.00000000000000 0.00000000000000
 -0.00000000000000 0.00000000000000 0.00000000000000
 0.00000000000000 0.00000000000000 -0.00000000000000
 0.00000000000000 0.00000000000000 0.00000000000000
 -323727.847062747 -367825.635646378 984837.338242949
 -138936.619314592 -289694.417558480 1052033.15548935
 -89339.8473061448 -145410.433905084 1086680.35658829
 -36890.9536165664 -70103.0577043328 1097143.84601189
 -11615.0039252869 5579.64700163804 1099924.52433026
 1099.44615399717 53466.0677953724 1098699.30864302
 1839.88742585759 78786.7387714758 1097173.30655098
 -1839.88742585738 78786.7387714759 1097173.30655098
 -1099.44615399717 53466.0677953724 1098699.30864302
 11615.0039252868 5579.64700163808 1099924.52433026
 36890.9536165665 -70103.0577043326 1097143.84601189
 89339.8473061449 -145410.433905084 1086680.35658829
 138936.619314592 -289694.417558479 1052033.15548935
 323727.847062747 -367825.635646378 984837.338242949
 0.00000000000000 -0.00000000000000 -0.00000000000000
 0.00000000000000 0.00000000000000 0.00000000000000
 -0.00000000000000 -0.00000000000000 -0.00000000000000
 -0.00000000000000 -0.00000000000000 0.00000000000000
 0.00000000000000 0.00000000000000 -0.00000000000000
 -367825.633737759 -323727.852131470 984837.337289647
 -174906.789978361 -174906.793024177 1071827.98460082
 -68451.3406216880 -98922.0426799821 1093402.41605692
 -9775.22995691005 -12623.7794466529 1099884.12347473
 30019.3701068033 67161.0221457816 1097537.34994429
 47913.0846957320 152440.824295945 1088331.81126112
 42972.4807910548 226075.592949334 1075659.42201390
 17178.0267345412 270374.436742814 1066115.65008376
 -17178.0267345412 270374.436742814 1066115.65008376
 -42972.4807910547 226075.592949335 1075659.42201390
 -47913.0846957321 152440.824295945 1088331.81126112
 -30019.3701068034 67161.0221457817 1097537.34994429
 9775.22995691010 -12623.7794466529 1099884.12347473
 68451.3406216880 -98922.0426799821 1093402.41605692
 174906.789978361 -174906.793024177 1071827.98460082
 367825.633737759 -323727.852131470 984837.337289647
 0.00000000000000 0.00000000000000 0.00000000000000
 -0.00000000000000 0.00000000000000 -0.00000000000000
 0.00000000000000 -0.00000000000000 -0.00000000000000
 0.00000000000000 0.00000000000000 -0.00000000000000
 -289694.417532939 -138936.623822011 1052033.15490111
 -98922.0431253532 -68451.3423298630 1093402.41590969
 497.199002347975 497.200336709098 1099999.77526588
 69181.8895743036 89145.9433480463 1094196.90501277
 119329.731934221 203045.757151831 1074491.89646974
 140743.955830696 343494.057048259 1035472.34230068
 117423.633552941 482233.115641778 981663.339674885
 46263.5524560167 570605.623117717 939291.704733195
 -46263.5524560167 570605.623117717 939291.704733195
 -117423.633552941 482233.115641778 981663.339674885
 -140743.955830696 343494.057048259 1035472.34230068
 -119329.731934221 203045.757151831 1074491.89646974
 -69181.8895743037 89145.9433480463 1094196.90501277
 -497.199002348061 497.200336709085 1099999.77526588
 98922.0431253532 -68451.3423298632 1093402.41590969
 289694.417532939 -138936.623822011 1052033.15490111
 0.00000000000000 0.00000000000000 0.00000000000000
 0.00000000000000 0.00000000000000 -0.00000000000000
 -0.00000000000000 -0.00000000000000 0.00000000000000
 -351184.837654557 -288485.289533347 1001721.24242446
 -145410.436471741 -89339.8498839689 1086680.35603291
 -12623.7814480987 -9775.23040260925 1099884.12344780
 89145.9407081526 69181.8907489612 1094196.90515357
 186619.959549970 186619.961154309 1067869.83326449
 278093.162336187 370598.546832735 997657.711916930
 327697.787972895 619142.314940920 848101.971231803
 276520.566897441 857158.118772917 631519.069786806
 108902.719869833 991817.912830690 463073.887617437
 -108902.719869832 991817.912830690 463073.887617437
 -276520.566897441 857158.118772917 631519.069786805
 -327697.787972895 619142.314940920 848101.971231803
 -278093.162336187 370598.546832735 997657.711916930
 -186619.959549970 186619.961154310 1067869.83326449
 -89145.9407081526 69181.8907489611 1094196.90515357
 12623.7814480987 -9775.23040260931 1099884.12344780
 145410.436471742 -89339.8498839690 1086680.35603291
 351184.837654557 -288485.289533347 1001721.24242446
 -0.00000000000000 -0.00000000000000 -0.00000000000000
 0.00000000000000 0.00000000000000 -0.00000000000000
 -278647.397229557 -116543.352943792 1057720.79250708
 -70103.0591464270 -36890.9549324778 1097143.84587550
 67161.0201158152 30019.3691599666 1097537.35009440
 203045.754648430 119329.733138058 1074491.89680912
 370598.545250594 278093.161806650 997657.712652253
 553663.085688028 553663.084725870 772602.340249009
 622718.761084310 854496.358114681 303409.489901635
 453053.444741135 979467.223433982 -213041.156649878
 155893.513247766 976354.901033243 -482108.203368948
 -155893.513247766 976354.901033243 -482108.203368948
 -453053.444741135 979467.223433982 -213041.156649879
 -622718.761084310 854496.358114681 303409.489901634
 -553663.085688029 553663.084725871 772602.340249008
 -370598.545250594 278093.161806650 997657.712652253
 -203045.754648430 119329.733138058 1074491.89680912
 -67161.0201158151 30019.3691599666 1097537.35009440
 70103.0591464270 -36890.9549324779 1097143.84587550
 278647.397229557 -116543.352943792 1057720.79250708
 0.00000000000000 -0.00000000000000 0.00000000000000
 -368858.740644513 -281691.029058693 997293.032963732
 -149767.611410837 -83287.1574933066 1086569.33141377
 5579.64569186958 -11615.0054098585 1099924.52432123
 152440.822452524 47913.0847879557 1088331.81151527
 343494.054841916 140743.955195427 1035472.34311893
 619142.313610047 327697.785409275 848101.973193941
 854496.360198932 622718.757029679 303409.492353469
 719709.121254448 719709.116137246 -417178.102172316
 401528.571581750 641812.366216886 -798029.882131366
 124413.766068223 582311.419616491 -924897.089084482
 -124413.766068222 582311.419616491 -924897.089084482
 -401528.571581750 641812.366216886 -798029.882131366
 -719709.121254448 719709.116137246 -417178.102172316
 -854496.360198932 622718.757029679 303409.492353469
 -619142.313610047 327697.785409275 848101.973193941
 -343494.054841916 140743.955195426 1035472.34311893
 -152440.822452524 47913.0847879557 1088331.81151527
 -5579.64569186960 -11615.0054098584 1099924.52432123
 149767.611410837 -83287.1574933067 1086569.33141377
 368858.740644513 -281691.029058693 997293.032963732
 -328930.218657991 -106633.989733713 1044238.52806103
 -103603.125400213 -40391.7901734924 1094365.06509203
 53466.0670787406 1099.44462049751 1098699.30867943
 226075.591860527 42972.4795251037 1075659.42229331
 482233.112600920 117423.632602464 981663.341282372
 857158.116274018 276520.561935307 631519.075351299
 979467.227395640 453053.439106686 -213041.150418183
 641812.370780317 401528.566728059 -798029.880903378
 329196.218261409 329196.214306515 -996624.153012883
 100892.972747982 295664.924098981 -1054705.10604037
 -100892.972747981 295664.924098981 -1054705.10604037
 -329196.218261409 329196.214306515 -996624.153012883
 -641812.370780317 401528.566728059 -798029.880903378
 -979467.227395640 453053.439106686 -213041.150418184
 -857158.116274018 276520.561935307 631519.075351299
 -482233.112600920 117423.632602464 981663.341282372
 -226075.591860527 42972.4795251037 1075659.42229331
 -53466.0670787406 1099.44462049745 1098699.30867943
 103603.125400212 -40391.7901734924 1094365.06509203
 328930.218657991 -106633.989733713 1044238.52806104
 -315899.126153615 -27988.7948273994 1053292.15769391
 -84139.4399909080 -11663.5140038480 1096715.33092188
 78786.7382295181 1839.88412717821 1097173.30659543
 270374.434358394 17178.0258087176 1066115.65070338
 570605.618163179 46263.5506174670 939291.707833558
 991817.907781410 108902.715933218 463073.899357841
 976354.906230143 155893.508521151 -482108.194372689
 582311.425135353 124413.762448103 -924897.086096795
 295664.928072977 100892.968899154 -1054705.10529452
 91174.6889558919 91174.6855624020 -1092416.74868449
 -91174.6889558919 91174.6855624017 -1092416.74868449
 -295664.928072977 100892.968899153 -1054705.10529452
 -582311.425135353 124413.762448103 -924897.086096795
 -976354.906230143 155893.508521151 -482108.194372689
 -991817.907781410 108902.715933217 463073.899357841
 -570605.618163179 46263.5506174667 939291.707833558
 -270374.434358394 17178.0258087175 1066115.65070338
 -78786.7382295182 1839.88412717811 1097173.30659543
 84139.4399909081 -11663.5140038481 1096715.33092188
 315899.126153615 -27988.7948273994 1053292.15769391
 -315899.126769982 27988.7888203840 1053292.15766867
 -84139.4417289436 11663.5063184382 1096715.33087028
 78786.7378941677 -1839.89128205312 1097173.30660751
 270374.434093449 -17178.0293155254 1066115.65071407
 570605.617437259 -46263.5528896562 939291.708162630
 991817.906678300 -108902.719723822 463073.900829046
 976354.906167244 -155893.516833581 -482108.191812181
 582311.425653477 -124413.769393218 -924897.084836355
 295664.928476031 -100892.976280815 -1054705.10447540
 91174.6881892586 -91174.6916859504 -1092416.74823739
 -91174.6881892588 -91174.6916859506 -1092416.74823739
 -295664.928476031 -100892.976280815 -1054705.10447540
 -582311.425653477 -124413.769393219 -924897.084836355
 -976354.906167244 -155893.516833582 -482108.191812181
 -991817.906678300 -108902.719723822 463073.900829047
 -570605.617437259 -46263.5528896564 939291.708162630
 -270374.434093449 -17178.0293155254 1066115.65071407
 -78786.7378941677 -1839.89128205323 1097173.30660751
 84139.4417289435 11663.5063184383 1096715.33087028
 315899.126769982 27988.7888203839 1053292.15766867
 -328930.219612557 106633.984811110 1044238.52826303
 -103603.125555068 40391.7819118823 1094365.06538230
 53466.0665596433 -1099.45231613532 1098699.30869699
 226075.591762269 -42972.4826360275 1075659.42218968
 482233.111465439 -117423.633194829 981663.341769310
 857158.113572755 -276520.563103528 631519.078506189
 979467.226051157 -453053.445087999 -213041.143879645
 641812.372114117 -401528.575799578 -798029.875266342
 329196.219037420 -329196.222113756 -996624.150177738
 100892.973267598 -295664.931184325 -1054705.10400443
 -100892.973267598 -295664.931184325 -1054705.10400443
 -329196.219037420 -329196.222113757 -996624.150177738
 -641812.372114118 -401528.575799579 -798029.875266341
 -979467.226051157 -453053.445087999 -213041.143879644
 -857158.113572754 -276520.563103528 631519.078506189
 -482233.111465439 -117423.633194829 981663.341769310
 -226075.591762268 -42972.4826360276 1075659.42218968
 -53466.0665596433 -1099.45231613534 1098699.30869699
 103603.125555069 40391.7819118823 1094365.06538230
 328930.219612557 106633.984811110 1044238.52826303
 -368858.740339719 281691.022901570 997293.034815577
 -149767.610742563 83287.1505600766 1086569.33203733
 5579.64678253359 11614.9986322816 1099924.52438727
 152440.824070440 -47913.0885703098 1088331.81112213
 343494.055207841 -140743.955361752 1035472.34297494
 619142.312821164 -327697.784439093 848101.974144720
 854496.357732947 -622718.757973606 303409.497361137
 719709.120680372 -719709.122383734 -417178.092386360
 401528.573184553 -641812.374517447 -798029.874649223
 124413.765321067 -582311.428507889 -924897.083586999
 -124413.765321067 -582311.428507890 -924897.083586999
 -401528.573184553 -641812.374517447 -798029.874649222
 -719709.120680373 -719709.122383734 -417178.092386358
 -854496.357732947 -622718.757973606 303409.497361138
 -619142.312821163 -327697.784439093 848101.974144720
 -343494.055207840 -140743.955361752 1035472.34297494
 -152440.824070440 -47913.0885703098 1088331.81112213
 -5579.64678253344 11614.9986322815 1099924.52438727
 149767.610742563 83287.1505600766 1086569.33203733
 368858.740339719 281691.022901571 997293.034815577
 -0.00000000000000 -0.00000000000000 -0.00000000000000
 -278647.394708052 116543.343558552 1057720.79420545
 -70103.0567421848 36890.9473948121 1097143.84628257
 67161.0231811932 -30019.3730650903 1097537.34980001
 203045.758013994 -119329.732589880 1074491.89623401
 370598.546771499 -278093.160550017 997657.712437565
 553663.084639013 -553663.082426335 772602.342648651
 622718.757346421 -854496.357338938 303409.499758025
 453053.443247324 -979467.227517900 -213041.141050604
 155893.513860225 -976354.908480933 -482108.188088008
 -155893.513860226 -976354.908480933 -482108.188088007
 -453053.443247325 -979467.227517900 -213041.141050603
 -622718.757346421 -854496.357338938 303409.499758027
 -553663.084639013 -553663.082426335 772602.342648651
 -370598.546771499 -278093.160550017 997657.712437565
 -203045.758013994 -119329.732589880 1074491.89623401
 -67161.0231811931 -30019.3730650903 1097537.34980001
 70103.0567421848 36890.9473948121 1097143.84628257
 278647.394708052 116543.343558552 1057720.79420545
 -0.00000000000000 0.00000000000000 -0.00000000000000
 -0.00000000000000 -0.00000000000000 -0.00000000000000
 -351184.833677425 288485.279815937 1001721.24661728
 -145410.432125516 89339.8418073600 1086680.35727849
 -12623.7772349971 9775.22593939874 1099884.12353582
 89145.9444943582 -69181.8909119349 1094196.90483480
 186619.963632223 -186619.959561847 1067869.83282938
 278093.162994149 -370598.543656723 997657.712913315
 327697.786689504 -619142.310240583 848101.975159093
 276520.563008818 -857158.111859334 631519.080873277
 108902.717662674 -991817.904425644 463073.906138544
 -108902.717662675 -991817.904425644 463073.906138545
 -276520.563008818 -857158.111859333 631519.080873278
 -327697.786689504 -619142.310240582 848101.975159094
 -278093.162994148 -370598.543656723 997657.712913315
 -186619.963632223 -186619.959561846 1067869.83282938
 -89145.9444943579 -69181.8909119348 1094196.90483480
 12623.7772349972 9775.22593939876 1099884.12353582
 145410.432125516 89339.8418073599 1086680.35727849
 351184.833677425 288485.279815937 1001721.24661728
 0.00000000000000 0.00000000000000 0.00000000000000
 -0.00000000000000 -0.00000000000000 0.00000000000000
 0.00000000000000 0.00000000000000 -0.00000000000000
 -289694.414687187 138936.615096896 1052033.15683702
 -98922.0393783253 68451.3378510798 1093402.41652908
 497.203689948431 -497.200957710168 1099999.77526348
 69181.8941134862 -89145.9417756970 1094196.90485387
 119329.736206989 -203045.754728515 1074491.89645316
 140743.958415311 -343494.052623391 1035472.34341722
 117423.634892443 -482233.109133191 981663.342711941
 46263.5527505595 -570605.614483252 939291.709963996
 -46263.5527505596 -570605.614483252 939291.709963996
 -117423.634892443 -482233.109133191 981663.342711941
 -140743.958415311 -343494.052623391 1035472.34341722
 -119329.736206989 -203045.754728515 1074491.89645316
 -69181.8941134861 -89145.9417756968 1094196.90485387
 -497.203689948409 -497.200957710147 1099999.77526348
 98922.0393783255 68451.3378510799 1093402.41652908
 289694.414687187 138936.615096896 1052033.15683702
 0.00000000000000 -0.00000000000000 -0.00000000000000
 0.00000000000000 0.00000000000000 -0.00000000000000
 -0.00000000000000 -0.00000000000000 0.00000000000000
 0.00000000000000 -0.00000000000000 -0.00000000000000
 -367825.632943498 323727.842777498 984837.340661057
 -174906.788619183 174906.787831523 1071827.98566999
 -68451.3380029101 98922.0400697388 1093402.41645702
 -9775.22524749987 12623.7795721655 1099884.12351514
 30019.3739802081 -67161.0216924421 1097537.34986608
 47913.0893408820 -152440.821611714 1088331.81143260
 42972.4831228665 -226075.590166827 1075659.42250555
 17178.0283259681 -270374.431351974 1066115.65142527
 -17178.0283259682 -270374.431351974 1066115.65142527
 -42972.4831228666 -226075.590166827 1075659.42250555
 -47913.0893408820 -152440.821611714 1088331.81143260
 -30019.3739802081 -67161.0216924419 1097537.34986608
 9775.22524749989 12623.7795721656 1099884.12351514
 68451.3380029103 98922.0400697389 1093402.41645702
 174906.788619183 174906.787831523 1071827.98566999
 367825.632943498 323727.842777498 984837.340661057
 0.00000000000000 -0.00000000000000 0.00000000000000
 0.00000000000000 -0.00000000000000 -0.00000000000000
 0.00000000000000 -0.00000000000000 -0.00000000000000
 0.00000000000000 0.00000000000000 -0.00000000000000
 0.00000000000000 0.00000000000000 0.00000000000000
 -323727.845916621 367825.631419332 984837.340198448
 -138936.617889281 289694.415570639 1052033.15622497
 -89339.8444260444 145410.433501973 1086680.35687901
 -36890.9502918993 70103.0580423502 1097143.84610208
 -11615.0006303500 -5579.64457280796 1099924.52437738
 1099.44937338083 -53466.0644373461 1098699.30880321
 1839.88780504910 -78786.7355453572 1097173.30678201
 -1839.88780504929 -78786.7355453572 1097173.30678201
 -1099.44937338095 -53466.0644373460 1098699.30880321
 11615.0006303499 -5579.64457280789 1099924.52437738
 36890.9502918993 70103.0580423502 1097143.84610208
 89339.8444260445 145410.433501973 1086680.35687901
 138936.617889281 289694.415570639 1052033.15622497
 323727.845916622 367825.631419332 984837.340198449
 -0.00000000000000 -0.00000000000000 -0.00000000000000
 -0.00000000000000 0.00000000000000 0.00000000000000
 0.00000000000000 0.00000000000000 0.00000000000000
 -0.00000000000000 0.00000000000000 0.00000000000000
 -0.00000000000000 -0.00000000000000 0.00000000000000
 0.00000000000000 0.00000000000000 -0.00000000000000
 -0.00000000000000 -0.00000000000000 -0.00000000000000
 0.00000000000000 -0.00000000000000 -0.00000000000000
 -288485.284783981 351184.835401706 1001721.24458204
 -116543.348097146 278647.396151920 1057720.79332500
 -83287.1550991672 149767.613356684 1086569.33132908
 -40391.7860023130 103603.128053406 1094365.06499481
 -11663.5104455239 84139.4439091127 1096715.33065912
 11663.5104455239 84139.4439091128 1096715.33065912
 40391.7860023130 103603.128053407 1094365.06499481
 83287.1550991671 149767.613356684 1086569.33132908
 116543.348097146 278647.396151920 1057720.79332500
 288485.284783981 351184.835401707 1001721.24458204
 0.00000000000000 0.00000000000000 0.00000000000000
 -0.00000000000000 0.00000000000000 0.00000000000000
 -0.00000000000000 0.00000000000000 0.00000000000000
 0.00000000000000 -0.00000000000000 0.00000000000000
 -0.00000000000000 -0.00000000000000 -0.00000000000000
 -0.00000000000000 -0.00000000000000 -0.00000000000000
 0.00000000000000 0.00000000000000 -0.00000000000000
 0.00000000000000 0.00000000000000 -0.00000000000000
 0.00000000000000 -0.00000000000000 -0.00000000000000
 0.00000000000000 0.00000000000000 0.00000000000000
 0.00000000000000 0.00000000000000 -0.00000000000000
 0.00000000000000 -0.00000000000000 -0.00000000000000
 -281691.028131561 368858.743783590 997293.032064587
 -106633.989475713 328930.221790129 1044238.52710077
 -27988.7925961119 315899.129364466 1053292.15679022
 27988.7925961119 315899.129364466 1053292.15679022
 106633.989475713 328930.221790129 1044238.52710077
 281691.028131561 368858.743783590 997293.032064587
 -0.00000000000000 0.00000000000000 -0.00000000000000
 0.00000000000000 0.00000000000000 -0.00000000000000
 -0.00000000000000 0.00000000000000 -0.00000000000000
 0.00000000000000 0.00000000000000 -0.00000000000000
 -0.00000000000000 -0.00000000000000 0.00000000000000
 -0.00000000000000 0.00000000000000 0.00000000000000
 -0.00000000000000 0.00000000000000 0.00000000000000
 0.00000000000000 0.00000000000000 -0.00000000000000
 0.00000000000000 0.00000000000000 -0.00000000000000
 0.00000000000000 0.00000000000000 0.00000000000000
 0.00000000000000 0.00000000000000 0.00000000000000
 -0.00000000000000 0.00000000000000 -0.00000000000000
 -0.00000000000000 0.00000000000000 -0.00000000000000
 -0.00000000000000 -0.00000000000000 -0.00000000000000
 -310354.032960895 -459607.174660925 949969.272779446
 -122532.915832904 -422645.680093795 1008144.98641591
 -32404.0492783845 -410771.460770072 1019910.18457862
 32404.0492783845 -410771.460770072 1019910.18457862
 122532.915832904 -422645.680093795 1008144.98641591
 310354.032960895 -459607.174660925 949969.272779447
 0.00000000000000 -0.00000000000000 -0.00000000000000
 0.00000000000000 -0.00000000000000 0.00000000000000
 0.00000000000000 -0.00000000000000 -0.00000000000000
 -0.00000000000000 0.00000000000000 0.00000000000000
 -0.00000000000000 0.00000000000000 0.00000000000000
 -0.00000000000000 -0.00000000000000 0.00000000000000
 -0.00000000000000 0.00000000000000 -0.00000000000000
 0.00000000000000 -0.00000000000000 -0.00000000000000
 -0.00000000000000 -0.00000000000000 -0.00000000000000
 0.00000000000000 0.00000000000000 -0.00000000000000
 -0.00000000000000 0.00000000000000 0.00000000000000
 -0.00000000000000 -0.00000000000000 0.00000000000000
 -330766.992238349 -436646.375061056 953904.156606751
 -154631.581003898 -358920.858620726 1028233.86999417
 -110784.801663380 -218677.758884986 1072337.05778055
 -53602.2099305344 -161154.422824965 1086810.03634238
 -15267.8035176234 -137082.435344461 1091318.14797326
 15267.8035176234 -137082.435344461 1091318.14797326
 53602.2099305344 -161154.422824965 1086810.03634238
 110784.801663380 -218677.758884986 1072337.05778055
 154631.581003898 -358920.858620726 1028233.86999417
 330766.992238349 -436646.375061056 953904.156606751
 0.00000000000000 -0.00000000000000 0.00000000000000
 0.00000000000000 -0.00000000000000 0.00000000000000
 0.00000000000000 0.00000000000000 0.00000000000000
 -0.00000000000000 -0.00000000000000 0.00000000000000
 -0.00000000000000 0.00000000000000 0.00000000000000
 -0.00000000000000 -0.00000000000000 0.00000000000000
 0.00000000000000 -0.00000000000000 0.00000000000000
 0.00000000000000 0.00000000000000 0.00000000000000
 -376428.605497068 -443559.246368081 933572.011108363
 -186146.728740970 -365218.029296849 1020766.95991571
 -125146.850919747 -209040.896153006 1072678.96848984
 -58446.8563710684 -113728.686029557 1092542.79136075
 -22490.2569407135 -18501.9077635457 1099614.41776281
 -2503.06143140855 44244.4243891115 1099106.98550867
 1255.39243185305 77003.1797588660 1097300.74924647
 -1255.39243185299 77003.1797588659 1097300.74924647
 2503.06143140861 44244.4243891115 1099106.98550867
 22490.2569407135 -18501.9077635457 1099614.41776281
 58446.8563710685 -113728.686029557 1092542.79136075
 125146.850919747 -209040.896153006 1072678.96848984
 186146.728740970 -365218.029296849 1020766.95991571
 376428.605497068 -443559.246368082 933572.011108363
 0.00000000000000 0.00000000000000 -0.00000000000000
 0.00000000000000 -0.00000000000000 -0.00000000000000
 0.00000000000000 0.00000000000000 -0.00000000000000
 0.00000000000000 -0.00000000000000 -0.00000000000000
 0.00000000000000 0.00000000000000 -0.00000000000000
 -443559.243673624 -376428.611409691 933572.010004507
 -232380.926860645 -232380.929127327 1049761.02452382
 -101742.540202251 -143366.794173040 1085861.14114178
 -24147.6101951597 -36517.7431800644 1099128.44897896
 30038.8378043850 66900.2450022427 1097552.74380870
 55841.4551189557 174446.318904345 1084642.89686095
 51690.3501949990 264796.479987444 1066400.92455088
 20832.7251895774 317688.544712795 1052919.74343700
 -20832.7251895773 317688.544712795 1052919.74343700
 -51690.3501949988 264796.479987444 1066400.92455088
 -55841.4551189557 174446.318904345 1084642.89686095
 -30038.8378043849 66900.2450022430 1097552.74380870
 24147.6101951596 -36517.7431800644 1099128.44897896
 101742.540202251 -143366.794173040 1085861.14114179
 232380.926860646 -232380.929127327 1049761.02452382
 443559.243673624 -376428.611409691 933572.010004507
 0.00000000000000 0.00000000000000 -0.00000000000000
 -0.00000000000000 -0.00000000000000 -0.00000000000000
 -0.00000000000000 0.00000000000000 -0.00000000000000
 0.00000000000000 0.00000000000000 0.00000000000000
 -365218.029311863 -186146.732486937 1020766.95922723
 -143366.794491000 -101742.541866381 1085861.14094388
 -12853.2773338891 -12853.2758806499 1099849.80181883
 79190.1672610435 100489.225503864 1092534.13354769
 144238.644636715 240956.959117959 1063548.28627853
 169410.330330365 402813.675834026 1009475.74638445
 138809.387462139 551987.515690866 941297.899962500
 53945.1379109795 642465.301260018 891250.951625096
 -53945.1379109792 642465.301260018 891250.951625096
 -138809.387462139 551987.515690866 941297.899962500
 -169410.330330365 402813.675834026 1009475.74638445
 -144238.644636716 240956.959117959 1063548.28627853
 -79190.1672610436 100489.225503864 1092534.13354769
 12853.2773338891 -12853.2758806499 1099849.80181883
 143366.794490999 -101742.541866381 1085861.14094388
 365218.029311863 -186146.732486937 1020766.95922723
 -0.00000000000000 -0.00000000000000 0.00000000000000
 0.00000000000000 -0.00000000000000 0.00000000000000
 0.00000000000000 -0.00000000000000 0.00000000000000
 -436646.377228071 -330766.994001703 953904.155003363
 -209040.898906356 -125146.853649951 1072678.96763474
 -36517.7461747680 -24147.6111081532 1099128.44885941
 100489.223193825 79190.1683316252 1092534.13368256
 224134.877725510 224134.878771342 1053340.92899931
 325538.899218681 429232.622780780 959053.585904470
 363705.004667526 674782.868734596 788914.919140274
 292304.038932885 889822.283293650 576866.234908577
 112257.075581818 1007865.58264211 426151.752674211
 -112257.075581818 1007865.58264211 426151.752674211
 -292304.038932885 889822.283293651 576866.234908577
 -363705.004667526 674782.868734596 788914.919140274
 -325538.899218681 429232.622780780 959053.585904470
 -224134.877725510 224134.878771342 1053340.92899931
 -100489.223193825 79190.1683316253 1092534.13368256
 36517.7461747680 -24147.6111081532 1099128.44885941
 209040.898906356 -125146.853649951 1072678.96763474
 436646.377228071 -330766.994001703 953904.155003362
 0.00000000000000 0.00000000000000 -0.00000000000000
 0.00000000000000 0.00000000000000 0.00000000000000
 -358920.860038466 -154631.581719387 1028233.86939169
 -113728.688900993 -58446.8586166940 1092542.79094171
 66900.2427494523 30038.8380776771 1097552.74393854
 240956.955943021 144238.644732341 1063548.28698487
 429232.621319953 325538.899258892 959053.586544627
 593252.121996066 593252.121592476 711409.755326135
 623370.776854648 857491.574075704 293457.109221780
 452838.335143122 994009.972516485 -129929.276002687
 160319.068156909 1026010.81379196 -362766.600402055
 -160319.068156908 1026010.81379196 -362766.600402055
 -452838.335143122 994009.972516485 -129929.276002688
 -623370.776854648 857491.574075704 293457.109221779
 -593252.121996066 593252.121592476 711409.755326135
 -429232.621319953 325538.899258892 959053.586544627
 -240956.955943021 144238.644732341 1063548.28698487
 -66900.2427494524 30038.8380776772 1097552.74393854
 113728.688900993 -58446.8586166939 1092542.79094171
 358920.860038466 -154631.581719387 1028233.86939169
 -0.00000000000000 0.00000000000000 0.00000000000000
 -459607.174501545 -310354.033710762 949969.272611576
 -218677.759725769 -110784.803004159 1072337.05747057
 -18501.9094437725 -22490.2576884487 1099614.41771925
 174446.316329325 55841.4541745962 1084642.89732372
 402813.673097325 169410.329865877 1009475.74755443